<VTKFile type="PolyData">
<PolyData>
<Piece NumberOfPoints=" 3555" NumberOfVerts="    0" NumberOfLines="    0" NumberOfStrips="    0" NumberOfPolys=" 3360">
<Points>
<DataArray type="Float32" NumberOfComponents="3" format="ascii">
    0.500000          0.00000        -0.625000E-01     0.468750          0.00000        -0.625000E-01     0.437500          0.00000        -0.625000E-01     0.406250          0.00000        -0.625000E-01     0.375000          0.00000        -0.625000E-01     0.343750          0.00000        -0.625000E-01     0.312500          0.00000        -0.625000E-01     0.281250          0.00000        -0.625000E-01     0.250000          0.00000        -0.625000E-01     0.218750          0.00000        -0.625000E-01     0.187500          0.00000        -0.625000E-01     0.156250          0.00000        -0.625000E-01     0.125000          0.00000        -0.625000E-01     0.937500E-01      0.00000        -0.625000E-01     0.625000E-01      0.00000        -0.625000E-01     0.312500E-01      0.00000        -0.625000E-01      0.00000          0.00000        -0.625000E-01    -0.312500E-01      0.00000        -0.625000E-01    -0.625000E-01      0.00000        -0.625000E-01    -0.937500E-01      0.00000        -0.625000E-01    -0.125000          0.00000        -0.625000E-01    -0.156250          0.00000        -0.625000E-01    -0.187500          0.00000        -0.625000E-01    -0.218750          0.00000        -0.625000E-01    -0.250000          0.00000        -0.625000E-01    -0.281250          0.00000        -0.625000E-01    -0.312500          0.00000        -0.625000E-01    -0.343750          0.00000        -0.625000E-01    -0.375000          0.00000        -0.625000E-01    -0.406250          0.00000        -0.625000E-01    -0.437500          0.00000        -0.625000E-01    -0.468750          0.00000        -0.625000E-01    -0.500000          0.00000        -0.625000E-01     0.500000          0.00000        -0.546875E-01     0.468750         0.141907E-02    -0.546875E-01     0.437500         0.274658E-02    -0.546875E-01     0.406250         0.398254E-02    -0.546875E-01     0.375000         0.512695E-02    -0.546875E-01     0.343750         0.617981E-02    -0.546875E-01     0.312500         0.714111E-02    -0.546875E-01     0.281250         0.801086E-02    -0.546875E-01     0.250000         0.878906E-02    -0.546875E-01     0.218750         0.947571E-02    -0.546875E-01     0.187500         0.100708E-01    -0.546875E-01     0.156250         0.105743E-01    -0.546875E-01     0.125000         0.109863E-01    -0.546875E-01     0.937500E-01     0.113068E-01    -0.546875E-01     0.625000E-01     0.115356E-01    -0.546875E-01     0.312500E-01     0.116730E-01    -0.546875E-01      0.00000         0.117188E-01    -0.546875E-01    -0.312500E-01     0.116730E-01    -0.546875E-01    -0.625000E-01     0.115356E-01    -0.546875E-01    -0.937500E-01     0.113068E-01    -0.546875E-01    -0.125000         0.109863E-01    -0.546875E-01    -0.156250         0.105743E-01    -0.546875E-01    -0.187500         0.100708E-01    -0.546875E-01    -0.218750         0.947571E-02    -0.546875E-01    -0.250000         0.878906E-02    -0.546875E-01    -0.281250         0.801086E-02    -0.546875E-01    -0.312500         0.714111E-02    -0.546875E-01    -0.343750         0.617981E-02    -0.546875E-01    -0.375000         0.512695E-02    -0.546875E-01    -0.406250         0.398254E-02    -0.546875E-01    -0.437500         0.274658E-02    -0.546875E-01    -0.468750         0.141907E-02    -0.546875E-01    -0.500000          0.00000        -0.546875E-01     0.500000          0.00000        -0.468750E-01     0.468750         0.264893E-02    -0.468750E-01     0.437500         0.512695E-02    -0.468750E-01     0.406250         0.743408E-02    -0.468750E-01     0.375000         0.957031E-02    -0.468750E-01     0.343750         0.115356E-01    -0.468750E-01     0.312500         0.133301E-01    -0.468750E-01     0.281250         0.149536E-01    -0.468750E-01     0.250000         0.164063E-01    -0.468750E-01     0.218750         0.176880E-01    -0.468750E-01     0.187500         0.187988E-01    -0.468750E-01     0.156250         0.197388E-01    -0.468750E-01     0.125000         0.205078E-01    -0.468750E-01     0.937500E-01     0.211060E-01    -0.468750E-01     0.625000E-01     0.215332E-01    -0.468750E-01     0.312500E-01     0.217896E-01    -0.468750E-01      0.00000         0.218750E-01    -0.468750E-01    -0.312500E-01     0.217896E-01    -0.468750E-01    -0.625000E-01     0.215332E-01    -0.468750E-01    -0.937500E-01     0.211060E-01    -0.468750E-01    -0.125000         0.205078E-01    -0.468750E-01    -0.156250         0.197388E-01    -0.468750E-01    -0.187500         0.187988E-01    -0.468750E-01    -0.218750         0.176880E-01    -0.468750E-01    -0.250000         0.164063E-01    -0.468750E-01    -0.281250         0.149536E-01    -0.468750E-01    -0.312500         0.133301E-01    -0.468750E-01    -0.343750         0.115356E-01    -0.468750E-01    -0.375000         0.957031E-02    -0.468750E-01    -0.406250         0.743408E-02    -0.468750E-01    -0.437500         0.512695E-02    -0.468750E-01    -0.468750         0.264893E-02    -0.468750E-01    -0.500000          0.00000        -0.468750E-01     0.500000          0.00000        -0.390625E-01     0.468750         0.368958E-02    -0.390625E-01     0.437500         0.714111E-02    -0.390625E-01     0.406250         0.103546E-01    -0.390625E-01     0.375000         0.133301E-01    -0.390625E-01     0.343750         0.160675E-01    -0.390625E-01     0.312500         0.185669E-01    -0.390625E-01     0.281250         0.208282E-01    -0.390625E-01     0.250000         0.228516E-01    -0.390625E-01     0.218750         0.246368E-01    -0.390625E-01     0.187500         0.261841E-01    -0.390625E-01     0.156250         0.274933E-01    -0.390625E-01     0.125000         0.285645E-01    -0.390625E-01     0.937500E-01     0.293976E-01    -0.390625E-01     0.625000E-01     0.299927E-01    -0.390625E-01     0.312500E-01     0.303497E-01    -0.390625E-01      0.00000         0.304688E-01    -0.390625E-01    -0.312500E-01     0.303497E-01    -0.390625E-01    -0.625000E-01     0.299927E-01    -0.390625E-01    -0.937500E-01     0.293976E-01    -0.390625E-01    -0.125000         0.285645E-01    -0.390625E-01    -0.156250         0.274933E-01    -0.390625E-01    -0.187500         0.261841E-01    -0.390625E-01    -0.218750         0.246368E-01    -0.390625E-01    -0.250000         0.228516E-01    -0.390625E-01    -0.281250         0.208282E-01    -0.390625E-01    -0.312500         0.185669E-01    -0.390625E-01    -0.343750         0.160675E-01    -0.390625E-01    -0.375000         0.133301E-01    -0.390625E-01    -0.406250         0.103546E-01    -0.390625E-01    -0.437500         0.714111E-02    -0.390625E-01    -0.468750         0.368958E-02    -0.390625E-01    -0.500000          0.00000        -0.390625E-01     0.500000          0.00000        -0.312500E-01     0.468750         0.454102E-02    -0.312500E-01     0.437500         0.878906E-02    -0.312500E-01     0.406250         0.127441E-01    -0.312500E-01     0.375000         0.164063E-01    -0.312500E-01     0.343750         0.197754E-01    -0.312500E-01     0.312500         0.228516E-01    -0.312500E-01     0.281250         0.256348E-01    -0.312500E-01     0.250000         0.281250E-01    -0.312500E-01     0.218750         0.303223E-01    -0.312500E-01     0.187500         0.322266E-01    -0.312500E-01     0.156250         0.338379E-01    -0.312500E-01     0.125000         0.351563E-01    -0.312500E-01     0.937500E-01     0.361816E-01    -0.312500E-01     0.625000E-01     0.369141E-01    -0.312500E-01     0.312500E-01     0.373535E-01    -0.312500E-01      0.00000         0.375000E-01    -0.312500E-01    -0.312500E-01     0.373535E-01    -0.312500E-01    -0.625000E-01     0.369141E-01    -0.312500E-01    -0.937500E-01     0.361816E-01    -0.312500E-01    -0.125000         0.351563E-01    -0.312500E-01    -0.156250         0.338379E-01    -0.312500E-01    -0.187500         0.322266E-01    -0.312500E-01    -0.218750         0.303223E-01    -0.312500E-01    -0.250000         0.281250E-01    -0.312500E-01    -0.281250         0.256348E-01    -0.312500E-01    -0.312500         0.228516E-01    -0.312500E-01    -0.343750         0.197754E-01    -0.312500E-01    -0.375000         0.164063E-01    -0.312500E-01    -0.406250         0.127441E-01    -0.312500E-01    -0.437500         0.878906E-02    -0.312500E-01    -0.468750         0.454102E-02    -0.312500E-01    -0.500000          0.00000        -0.312500E-01     0.500000          0.00000        -0.234375E-01     0.468750         0.520325E-02    -0.234375E-01     0.437500         0.100708E-01    -0.234375E-01     0.406250         0.146027E-01    -0.234375E-01     0.375000         0.187988E-01    -0.234375E-01     0.343750         0.226593E-01    -0.234375E-01     0.312500         0.261841E-01    -0.234375E-01     0.281250         0.293732E-01    -0.234375E-01     0.250000         0.322266E-01    -0.234375E-01     0.218750         0.347443E-01    -0.234375E-01     0.187500         0.369263E-01    -0.234375E-01     0.156250         0.387726E-01    -0.234375E-01     0.125000         0.402832E-01    -0.234375E-01     0.937500E-01     0.414581E-01    -0.234375E-01     0.625000E-01     0.422974E-01    -0.234375E-01     0.312500E-01     0.428009E-01    -0.234375E-01      0.00000         0.429688E-01    -0.234375E-01    -0.312500E-01     0.428009E-01    -0.234375E-01    -0.625000E-01     0.422974E-01    -0.234375E-01    -0.937500E-01     0.414581E-01    -0.234375E-01    -0.125000         0.402832E-01    -0.234375E-01    -0.156250         0.387726E-01    -0.234375E-01    -0.187500         0.369263E-01    -0.234375E-01    -0.218750         0.347443E-01    -0.234375E-01    -0.250000         0.322266E-01    -0.234375E-01    -0.281250         0.293732E-01    -0.234375E-01    -0.312500         0.26184
[...]
<CellData>
<DataArray type="Float32" Name="vn" format="ascii">
   -0.346945E-17    -0.165666E-13    -0.579259E-13    -0.304895E-13    -0.371925E-14     0.208167E-14     0.169725E-13     0.594039E-13     0.951531E-13     0.468167E-13    -0.677965E-13    -0.213368E-12    -0.311164E-12    -0.347854E-12    -0.217527E-12     0.102862E-12     0.574952E-12     0.120323E-11     0.196270E-11     0.275487E-11     0.335293E-11     0.344113E-11     0.292560E-11     0.219797E-11     0.166871E-11     0.129515E-11     0.945362E-12     0.616292E-12     0.325857E-12     0.142976E-12    -0.974804E-12    -0.311560E-12     0.106644E-12     0.286465E-12     0.253679E-12     0.290060E-12     0.300239E-12     0.276827E-12    -0.257780E-13     0.135295E-12     0.521305E-12     0.696825E-12     0.678714E-12     0.706171E-12     0.882100E-12     0.114695E-11     0.185692E-11     0.295323E-11     0.406892E-11     0.523771E-11     0.674290E-11     0.887642E-11     0.111039E-10     0.118744E-10     0.102251E-10     0.742287E-11     0.554819E-11     0.457767E-11     0.328637E-11     0.237843E-11     0.166259E-11     0.133669E-11     0.785358E-12    -0.446483E-12     0.956135E-11     0.368095E-10     0.107953E-11     0.624037E-10     0.152801E-11     0.728202E-12     0.569399E-12     0.114855E-11     0.160992E-11     0.232305E-11     0.269747E-11     0.345786E-11     0.463466E-11     0.599430E-11     0.816446E-11     0.100809E-10     0.115699E-10     0.130577E-10     0.148002E-10     0.185809E-10     0.630994E-10     0.246684E-10     0.527316E-10     0.100130E-09     0.110286E-10     0.556533E-10     0.505848E-10     0.529626E-10     0.742837E-10     0.992000E-10     0.112491E-09     0.898309E-10     0.683239E-10     0.490482E-10     0.702353E-10     0.521970E-10     0.550542E-10     0.347883E-10     0.368143E-10     0.524670E-10     0.242615E-10     0.655467E-10     0.519092E-10     0.548888E-10     0.732598E-10     0.629358E-10     0.491310E-10     0.405225E-10     0.443371E-10     0.334954E-10     0.462758E-10     0.259100E-10     0.851561E-10     0.235815E-10     0.727112E-10     0.449009E-10     0.207602E-10     0.612245E-10     0.314306E-10     0.493461E-10     0.529523E-10     0.393575E-10     0.770109E-10     0.480729E-10     0.393974E-10     0.205847E-10     0.125467E-10     0.237574E-10     0.441547E-10     0.624760E-10     0.649067E-10     0.978482E-10     0.568534E-10     0.601639E-10     0.507686E-10     0.567217E-10     0.615657E-10     0.295919E-10     0.296159E-10     0.122774E-10    -0.585970E-11     0.404794E-12     0.630950E-10     0.323385E-10     0.540664E-10     0.294791E-10     0.198920E-10     0.810472E-10     0.918714E-10     0.946822E-10     0.845391E-10     0.194929E-10     0.555475E-10     0.494926E-10     0.404590E-10     0.347016E-10    -0.105331E-08     0.359449E-10    -0.240124E-10     0.666629E-10     0.854237E-10     0.393618E-10     0.905967E-10     0.117068E-09     0.120933E-09     0.139824E-09     0.112592E-09     0.627881E-10     0.132994E-09     0.660675E-10     0.764417E-10     0.603417E-10     0.999278E-10     0.563898E-10     0.133915E-10     0.752744E-10     0.382809E-10     0.365674E-10     0.738388E-10     0.104200E-09     0.750222E-10     0.351510E-10     0.860613E-10     0.652153E-10     0.402625E-10     0.360593E-10     0.354349E-10    -0.805351E-11    -0.548493E-10    -0.218855E-10    -0.166741E-10    -0.630888E-10    -0.728706E-10    -0.122041E-10    -0.826553E-10    -0.153136E-10    -0.460643E-10     0.194193E-10    -0.432792E-10     0.120539E-09    -0.269381E-10     0.962906E-10     0.434757E-10     0.391586E-10    -0.333510E-10     0.550313E-10     0.493083E-10    -0.251336E-11    -0.307355E-10    -0.567502E-10    -0.361729E-10    -0.211649E-09    -0.694720E-10     0.262926E-09    -0.253022E-09    -0.229822E-09     0.415105E-10    -0.561817E-10    -0.754734E-10     0.183388E-09     0.106030E-09    -0.351591E-09    -0.396519E-09     0.265543E-09    -0.679015E-09    -0.405608E-09    -0.474087E-09     0.252907E-09    -0.869015E-09    -0.408641E-09    -0.943844E-09     0.448240E-09     0.457275E-09    -0.232710E-09    -0.727195E-09    -0.756672E-09     0.281478E-09    -0.337328E-09    -0.598291E-09     0.115202E-08    -0.129739E-08    -0.517431E-08    -0.367003E-08     0.828327E-10    -0.113239E-08    -0.103566E-07     0.339076E-08     0.528692E-08    -0.297734E-08    -0.188695E-09     0.360947E-07    -0.489600E-08     0.268552E-08    -0.659497E-08    -0.298642E-08    -0.308379E-08    -0.225992E-08     0.926177E-08     0.384631E-09    -0.305222E-09    -0.569868E-08     0.186765E-08    -0.192582E-07    -0.500813E-08    -0.579793E-08    -0.148614E-07    -0.401840E-08    -0.195828E-07    -0.171309E-07    -0.714378E-08    -0.482333E-08     0.168383E-07    -0.554933E-07    -0.587848E-08    -0.588495E-08    -0.204327E-07    -0.191475E-07    -0.146278E-07    -0.120445E-07    -0.223762E-07    -0.255508E-07    -0.195674E-07    -0.277883E-07     0.214860E-07     0.944318E-04     0.135009E-03     0.192237E-03     0.267742E-03     0.364585E-03     0.487369E-03     0.642975E-03     0.841919E-03     0.110092E-02     0.144745E-02     0.193104E-02     0.263944E-02     0.378843E-02     0.573855E-02     0.104629E-01     0.208991E-01     0.952097E-01     0.249804         0.252335         0.211146         0.156317         0.982956E-01     0.423782E-01    -0.826279E-02    -0.514478E-01    -0.856315E-01    -0.109898        -0.124112        -0.129026        -0.126249        -0.118018        -0.106810        -0.948895E-01    -0.839301E-01    -0.747969E-01    -0.675836E-01    -0.618382E-01    -0.569121E-01    -0.522718E-01    -0.476915E-01    -0.432624E-01    -0.392860E-01    -0.360685E-01    -0.337425E-01    -0.320230E-01    -0.300342E-01    -0.243579E-01    -0.109967E-01     0.865187E-01     0.362941         0.413245         0.380746         0.305865         0.211152         0.115037         0.309490E-01    -0.333251E-01    -0.752732E-01    -0.965202E-01    -0.101325        -0.950825E-01    -0.830959E-01    -0.697410E-01    -0.580512E-01    -0.496580E-01    -0.449850E-01    -0.435813E-01    -0.444934E-01    -0.465984E-01    -0.488560E-01    -0.504617E-01    -0.509086E-01    -0.499786E-01    -0.476867E-01    -0.442059E-01    -0.397910E-01    -0.347160E-01    -0.292302E-01    -0.235358E-01    -0.177809E-01    -0.120665E-01    -0.645840E-02    -0.100189E-02     0.426526E-02     0.930381E-02     0.140680E-01     0.185045E-01     0.225543E-01     0.261567E-01     0.292535E-01     0.317933E-01     0.337350E-01     0.350504E-01     0.357250E-01     0.357584E-01     0.351642E-01     0.339681E-01     0.322071E-01     0.299278E-01     0.271846E-01     0.240384E-01     0.205553E-01     0.168050E-01     0.128596E-01     0.879266E-02     0.467774E-02     0.587505E-03    -0.340741E-02    -0.723945E-02    -0.108451E-01    -0.141658E-01    -0.171489E-01    -0.197482E-01    -0.219246E-01    -0.236467E-01    -0.248912E-01    -0.256427E-01    -0.258939E-01    -0.256450E-01    -0.249037E-01    -0.236836E-01    -0.220027E-01    -0.198821E-01    -0.173373E-01    -0.143855E-01    -0.109546E-01    -0.713230E-02    -0.145408E-02     0.940230E-04     0.134393E-03     0.191313E-03     0.266375E-03     0.362588E-03     0.484466E-03     0.638736E-03     0.835646E-03     0.109138E-02     0.143239E-02     0.190556E-02     0.259395E-02     0.368808E-02     0.553058E-02     0.950102E-02     0.180807E-01     0.359545E-01     0.328241E-01     0.223260E-01     0.197546E-01     0.242355E-01     0.300212E-01     0.319634E-01     0.269156E-01     0.138971E-01    -0.614164E-02    -0.307180E-01    -0.563451E-01    -0.791926E-01    -0.958338E-01    -0.103958        -0.102866        -0.935888E-01    -0.785564E-01    -0.608961E-01    -0.435794E-01    -0.287002E-01    -0.171193E-01    -0.855825E-02    -0.204159E-02     0.353867E-02     0.897793E-02     0.145798E-01     0.202440E-01     0.257560E-01     0.310760E-01     0.373985E-01     0.476007E-01     0.765466E-01     0.113534         0.146050         0.172866         0.189944         0.190182         0.170556         0.133198         0.841609E-01     0.312989E-01    -0.178290E-01    -0.575043E-01    -0.846183E-01    -0.987046E-01    -0.101425        -0.957674E-01    -0.851950E-01    -0.729298E-01    -0.614706E-01    -0.523711E-01    -0.462466E-01    -0.429435E-01    -0.417937E-01    -0.418853E-01    -0.422956E-01    -0.422575E-01    -0.412493E-01    -0.390162E-01    -0.355389E-01    -0.309739E-01    -0.255813E-01    -0.196593E-01    -0.134933E-01    -0.732408E-02    -0.133361E-02     0.435362E-02     0.966067E-02     0.145437E-01     0.189773E-01     0.229431E-01     0.264219E-01     0.293903E-01     0.318213E-01     0.336866E-01     0.349610E-01     0.356258E-01     0.356727E-01     0.351055E-01     0.339414E-01     0.322107E-01     0.299558E-01     0.272291E-01     0.240915E-01     0.206102E-01     0.168566E-01     0.129049E-01     0.883010E-02     0.470719E-02     0.609599E-03    -0.339161E-02    -0.722877E-02    -0.108385E-01    -0.141624E-01    -0.171480E-01    -0.197494E-01    -0.219277E-01    -0.236516E-01    -0.248978E-01    -0.256510E-01    -0.259037E-01    -0.256563E-01    -0.249164E-01    -0.236975E-01    -0.220178E-01    -0.198980E-01    -0.173539E-01    -0.144025E-01    -0.109719E-01    -0.714957E-02    -0.147273E-02     0.930991E-04     0.133003E-03     0.189228E-03     0.263295E-03     0.358094E-03     0.477945E-03     0.629242E-03     0.821643E-03     0.107021E-02     0.139920E-02     0.185025E-02     0.249622E-02     0.348562E-02     0.510113E-02     0.805207E-02     0.139492E-01     0.234637E-01     0.357063E-01     0.449117E-01     0.492154E-01     0.481855E-01     0.425648E-01     0.338709E-01     0.236288E-01     0.127777E-01     0.147074E-02    -0.107352E-01    -0.244177E-01    -0.397337E-01    -0.559789E-01    -0.714513E-01    -0.837272E-01    -0.903128E-01    -0.894673E-01    -0.808880E-01    -0.659540E-01    -0.473843E-01    -0.284122E-01    -0.117966E-01     0.927160E-03     0.967005E-02     0.154562E-01     0.197543E-01     0.238171E-01     0.283257E-01     0.334310E-01     0.392359E-01     0.469760E-01     0.540272E-01     0.609733E-01     0.682223E-01     0.827384E-01     0.104809         0.129136         0.147947         0.154140         0.143556         0.116010         0.750600E-01     0.268329E-01    -0.216013E-01    -0.638224E-01    -0.952418E-01    -0.113683        -0.119364        -0.114402        -0.102065        -0.859589E-01    -0.693462E-01    -0.546767E-01    -0.433812E-01    -0.358937E-01    -0.318422E-01    -0.303299E-01    -0.302326E-01    -0.304557E-01    -0.301168E-01    -0.286413E-01    -0.257810E-01    -0.215715E-01    -0.162549E-01    -0.101904E-01    -0.377152E-02     0.263799E-02     0.874432E-02     0.143402E-01     0.193028E-01     0.235783E-01     0.271620E-01     0.300764E-01     0.323539E-01     0.340249E-01     0.351115E-01     0.356267E-01     0.355773E-01     0.349683E-01     0.338081E-01     0.321129E-01     0.299096E-01     0.272374E-01     0.241470E-01     0.206997E-01     0.169649E-01     0.130177E-01     0.893603E-02     0.479857E-02     0.682493E-03    -0.333804E-02    -0.719310E-02    -0.108180E-01    -0.141539E-01    -0.171485E-01    -0.197563E-01    -0.219392E-01    -0.236666E-01    -0.249157E-01    -0.256714E-01    -0.259268E-01    -0.256822E-01    -0.249451E-01    -0.237289E-01    -0.220516E-01    -0.199339E-01    -0.173914E-01    -0.144411E-01    -0.110112E-01    -0.718900E-02    -0.151532E-02     0.915343E-04     0.130651E-03     0.185706E-03     0.258103E-03     0.350540E-03     0.467022E-03     0.613416E-03     0.798456E-03     0.103549E-02     0.134549E-02     0.176287E-02     0.234560E-02     0.319778E-02     0.450715E-02     0.660799E-02     0.999145E-02     0.140069E-01     0.159132E-01     0.164286E-01     0.168052E-01     0.178728E-01     0.195332E-01     0.209564E-01     0.210223E-01     0.187631E-01     0.136556E-01     0.569874E-02    -0.469780E-02    -0.169122E-01    -0.302684E-01    -0.440574E-01    -0.574158E-01    -0.691564E-01    -0.777223E-01    -0.814001E-01    -0.788091E-01    -0.695041E-01    -0.543981E-01    -0.357364E-01    -0.165328E-01     0.344093E-03     0.130512E-01     0.212241E-01     0.258290E-01     0.285457E-01     0.310441E-01     0.345388E-01     0.398743E-01     0.482444E-01     0.574733E-01     0.661865E-01     0.737957E-01     0.818266E-01     0.914274E-01     0.102307         0.112460         0.118601         0.117151         0.105386         0.823861E-01     0.494626E-01     0.997957E-02    -0.313490E-01    -0.694559E-01    -0.999334E-01    -0.119820        -0.128004        -0.125213        -0.113646        -0.963841E-01    -0.767349E-01    -0.576510E-01    -0.413207E-01    -0.289725E-01    -0.208874E-01    -0.165709E-01    -0.150191E-01    -0.150104E-01    -0.153650E-01    -0.151353E-01    -0.137104E-01    -0.108388E-01    -0.658528E-02    -0.124683E-02     0.474758E-02     0.109328E-01     0.168834E-01     0.222635E-01     0.268481E-01     0.305219E-01     0.332614E-01     0.351083E-01     0.361422E-01     0.364553E-01     0.361356E-01     0.352566E-01     0.338744E-01     0.320299E-01     0.297547E-01     0.270772E-01     0.240291E-01     0.206498E-01     0.169888E-01     0.131057E-01     0.906917E-02     0.495442E-02     0.839758E-03    -0.319636E-02    -0.707825E-02    -0.107353E-01    -0.141038E-01    -0.171277E-01    -0.197596E-01    -0.219607E-01    -0.237006E-01    -0.249578E-01    -0.257185E-01    -0.259769E-01    -0.257344E-01    -0.249991E-01    -0.237849E-01    -0.221099E-01    -0.199945E-01    -0.174542E-01    -0.145058E-01    -0.110775E-01    -0.725586E-02    -0.158815E-02     0.891989E-04     0.127148E-03     0.180473E-03     0.250414E-03     0.339397E-03     0.450996E-03     0.590365E-03     0.765020E-03     0.986127E-03     0.127062E-02     0.164479E-02     0.215013E-02     0.285289E-02     0.385668E-02     0.530924E-02     0.737951E-02     0.982931E-02     0.123042E-01     0.146561E-01     0.164568E-01     0.173519E-01     0.171884E-01     0.160558E-01     0.141897E-01     0.117957E-01     0.889522E-02     0.527242E-02     0.547022E-03    -0.566581E-02    -0.135806E-01    -0.231208E-01    -0.338784E-01    -0.451329E-01    -0.558876E-01    -0.649014E-01    -0.707537E-01    -0.720192E-01    -0.676007E-01    -0.571687E-01    -0.415277E-01    -0.226733E-01    -0.339114E-02     0.135287E-01     0.261593E-01     0.340044E-01     0.380049E-01     0.400223E-01     0.420916E-01     0.455429E-01     0.500148E-01     0.551748E-01     0.611409E-01     0.676035E-01     0.741941E-01     0.805771E-01     0.863736E-01     0.909647E-01     0.933210E-01     0.920048E-01     0.854100E-01     0.721942E-01     0.517672E-01     0.246701E-01    -0.729455E-02    -0.412394E-01    -0.736469E-01    -0.100991        -0.120372        -0.130024        -0.129577        -0.120040        -0.103538        -0.828572E-01    -0.609389E-01    -0.403977E-01    -0.231702E-01    -0.103298E-01    -0.207738E-02     0.212048E-02     0.329742E-02     0.271588E-02     0.161290E-02     0.100320E-02     0.156110E-02     0.358406E-02     0.702592E-02     0.115783E-01     0.167756E-01     0.221005E-01     0.270723E-01     0.313089E-01     0.345577E-01     0.366994E-01     0.377306E-01     0.377340E-01     0.368444E-01     0.352166E-01     0.330013E-01     0.303286E-01     0.273012E-01     0.239956E-01     0.204666E-01     0.167563E-01     0.129018E-01     0.894247E-02     0.492396E-02     0.900420E-03    -0.306620E-02    -0.690841E-02    -0.105565E-01    -0.139422E-01    -0.170019E-01    -0.196797E-01    -0.219288E-01    -0.237130E-01    -0.250065E-01    -0.257943E-01    -0.260703E-01    -0.258376E-01    -0.251061E-01    -0.238919E-01    -0.222149E-01    -0.200971E-01    -0.175545E-01    -0.146045E-01    -0.111758E-01    -0.735386E-02    -0.169509E-02     0.859720E-04     0.122323E-03     0.173289E-03     0.239902E-03     0.324249E-03     0.429370E-03     0.559564E-03     0.720932E-03     0.922222E-03     0.117611E-02     0.150106E-02     0.192393E-02     0.248291E-02     0.322904E-02     0.422012E-02     0.549710E-02     0.682228E-02     0.785884E-02     0.869683E-02     0.939027E-02     0.100202E-01     0.105903E-01     0.109800E-01     0.109661E-01     0.102969E-01     0.877138E-02     0.628622E-02     0.282799E-02    -0.157403E-02    -0.689894E-02    -0.131508E-01    -0.203229E-01    -0.283206E-01    -0.368746E-01    -0.454749E-01    -0.533435E-01    -0.594540E-01    -0.626133E-01    -0.616335E-01    -0.556166E-01    -0.443178E-01    -0.284610E-01    -0.982212E-02     0.906795E-02     0.255879E-01     0.378359E-01     0.452385E-01     0.486553E-01     0.506500E-01     0.526943E-01     0.545888E-01     0.566510E-01     0.591851E-01     0.622986E-01     0.658376E-01     0.694249E-01     0.725371E-01     0.745669E-01     0.748485E-01     0.726602E-01     0.672437E-01     0.578774E-01     0.440208E-01     0.255083E-01     0.274230E-02    -0.231850E-01    -0.504966E-01    -0.768917E-01    -0.998482E-01    -0.117011        -0.126587        -0.127656        -0.120334        -0.105759        -0.858872E-01    -0.631715E-01    -0.401659E-01    -0.191480E-01    -0.181977E-02     0.108657E-01     0.187368E-01     0.223063E-01     0.225799E-01     0.208168E-01     0.182893E-01     0.160831E-01     0.149638E-01     0.153186E-01     0.171710E-01     0.202487E-01     0.240853E-01     0.281313E-01     0.318542E-01     0.348150E-01     0.367133E-01     0.374020E-01     0.368752E-01     0.352391E-01     0.326730E-01     0.293908E-01     0.256071E-01     0.215134E-01     0.172645E-01     0.129747E-01     0.872219E-02     0.455724E-02     0.513090E-03    -0.338415E-02    -0.710767E-02    -0.106252E-01    -0.138972E-01    -0.168781E-01    -0.195189E-01    -0.217707E-01    -0.235892E-01    -0.249374E-01    -0.257884E-01    -0.261262E-01    -0.259463E-01    -0.252548E-01    -0.240662E-01    -0.224017E-01    -0.202855E-01    -0.177373E-01    -0.147774E-01    -0.113380E-01    -0.750539E-02    -0.185090E-02     0.817598E-04     0.116048E-03     0.163989E-03     0.226370E-03     0.304887E-03     0.401983E-03     0.521030E-03     0.666658E-03     0.845232E-03     0.106549E-02     0.133934E-02     0.168258E-02     0.211526E-02     0.266044E-02     0.333982E-02     0.416612E-02     0.501648E-02     0.578413E-02     0.651720E-02     0.714948E-02     0.760756E-02     0.783052E-02     0.778501E-02     0.746168E-02     0.685269E-02     0.592263E-02     0.459108E-02     0.273828E-02     0.232314E-03    -0.303549E-02    -0.712351E-02    -0.120286E-01    -0.176858E-01    -0.239660E-01    -0.306600E-01    -0.374459E-01    -0.438518E-01    -0.492299E-01    -0.527593E-01    -0.535015E-01    -0.505344E-01    -0.431773E-01    -0.312834E-01    -0.155077E-01     0.259669E-02     0.207880E-01     0.366751E-01     0.484212E-01     0.553197E-01     0.591385E-01     0.609808E-01     0.614648E-01     0.611769E-01     0.606322E-01     0.602057E-01     0.600771E-01     0.602053E-01     0.603389E-01     0.600575E-01     0.588319E-01     0.560890E-01     0.512711E-01     0.438900E-01     0.335806E-01     0.201625E-01     0.371158E-02    -0.153685E-01    -0.362930E-01    -0.578860E-01    -0.786379E-01    -0.968367E-01    -0.110769        -0.118957        -0.120400        -0.114754        -0.102432        -0.845789E-01    -0.629308E-01    -0.395836E-01    -0.167024E-01     0.376999E-02     0.203571E-01     0.322073E-01     0.391459E-01     0.416194E-01     0.405534E-01     0.371543E-01     0.326941E-01     0.283167E-01     0.248906E-01     0.229283E-01     0.225725E-01     0.236411E-01     0.257146E-01     0.282440E-01     0.306579E-01     0.324542E-01     0.332620E-01     0.328737E-01     0.312448E-01     0.284716E-01     0.247525E-01     0.203434E-01     0.155164E-01     0.105245E-01     0.557958E-02     0.840646E-03    -0.358651E-02    -0.764210E-02    -0.113006E-01    -0.145576E-01    -0.174174E-01    -0.198844E-01    -0.219567E-01    -0.236247E-01    -0.248719E-01    -0.256776E