<VTKFile type="PolyData">
<PolyData>
<Piece NumberOfPoints=" 3555" NumberOfVerts="    0" NumberOfLines="    0" NumberOfStrips="    0" NumberOfPolys=" 3360">
<Points>
<DataArray type="Float32" NumberOfComponents="3" format="ascii">
    0.500000          0.00000        -0.625000E-01     0.468750          0.00000        -0.625000E-01     0.437500          0.00000        -0.625000E-01     0.406250          0.00000        -0.625000E-01     0.375000          0.00000        -0.625000E-01     0.343750          0.00000        -0.625000E-01     0.312500          0.00000        -0.625000E-01     0.281250          0.00000        -0.625000E-01     0.250000          0.00000        -0.625000E-01     0.218750          0.00000        -0.625000E-01     0.187500          0.00000        -0.625000E-01     0.156250          0.00000        -0.625000E-01     0.125000          0.00000        -0.625000E-01     0.937500E-01      0.00000        -0.625000E-01     0.625000E-01      0.00000        -0.625000E-01     0.312500E-01      0.00000        -0.625000E-01      0.00000          0.00000        -0.625000E-01    -0.312500E-01      0.00000        -0.625000E-01    -0.625000E-01      0.00000        -0.625000E-01    -0.937500E-01      0.00000        -0.625000E-01    -0.125000          0.00000        -0.625000E-01    -0.156250          0.00000        -0.625000E-01    -0.187500          0.00000        -0.625000E-01    -0.218750          0.00000        -0.625000E-01    -0.250000          0.00000        -0.625000E-01    -0.281250          0.00000        -0.625000E-01    -0.312500          0.00000        -0.625000E-01    -0.343750          0.00000        -0.625000E-01    -0.375000          0.00000        -0.625000E-01    -0.406250          0.00000        -0.625000E-01    -0.437500          0.00000        -0.625000E-01    -0.468750          0.00000        -0.625000E-01    -0.500000          0.00000        -0.625000E-01     0.500000          0.00000        -0.546875E-01     0.468750         0.141907E-02    -0.546875E-01     0.437500         0.274658E-02    -0.546875E-01     0.406250         0.398254E-02    -0.546875E-01     0.375000         0.512695E-02    -0.546875E-01     0.343750         0.617981E-02    -0.546875E-01     0.312500         0.714111E-02    -0.546875E-01     0.281250         0.801086E-02    -0.546875E-01     0.250000         0.878906E-02    -0.546875E-01     0.218750         0.947571E-02    -0.546875E-01     0.187500         0.100708E-01    -0.546875E-01     0.156250         0.105743E-01    -0.546875E-01     0.125000         0.109863E-01    -0.546875E-01     0.937500E-01     0.113068E-01    -0.546875E-01     0.625000E-01     0.115356E-01    -0.546875E-01     0.312500E-01     0.116730E-01    -0.546875E-01      0.00000         0.117188E-01    -0.546875E-01    -0.312500E-01     0.116730E-01    -0.546875E-01    -0.625000E-01     0.115356E-01    -0.546875E-01    -0.937500E-01     0.113068E-01    -0.546875E-01    -0.125000         0.109863E-01    -0.546875E-01    -0.156250         0.105743E-01    -0.546875E-01    -0.187500         0.100708E-01    -0.546875E-01    -0.218750         0.947571E-02    -0.546875E-01    -0.250000         0.878906E-02    -0.546875E-01    -0.281250         0.801086E-02    -0.546875E-01    -0.312500         0.714111E-02    -0.546875E-01    -0.343750         0.617981E-02    -0.546875E-01    -0.375000         0.512695E-02    -0.546875E-01    -0.406250         0.398254E-02    -0.546875E-01    -0.437500         0.274658E-02    -0.546875E-01    -0.468750         0.141907E-02    -0.546875E-01    -0.500000          0.00000        -0.546875E-01     0.500000          0.00000        -0.468750E-01     0.468750         0.264893E-02    -0.468750E-01     0.437500         0.512695E-02    -0.468750E-01     0.406250         0.743408E-02    -0.468750E-01     0.375000         0.957031E-02    -0.468750E-01     0.343750         0.115356E-01    -0.468750E-01     0.312500         0.133301E-01    -0.468750E-01     0.281250         0.149536E-01    -0.468750E-01     0.250000         0.164063E-01    -0.468750E-01     0.218750         0.176880E-01    -0.468750E-01     0.187500         0.187988E-01    -0.468750E-01     0.156250         0.197388E-01    -0.468750E-01     0.125000         0.205078E-01    -0.468750E-01     0.937500E-01     0.211060E-01    -0.468750E-01     0.625000E-01     0.215332E-01    -0.468750E-01     0.312500E-01     0.217896E-01    -0.468750E-01      0.00000         0.218750E-01    -0.468750E-01    -0.312500E-01     0.217896E-01    -0.468750E-01    -0.625000E-01     0.215332E-01    -0.468750E-01    -0.937500E-01     0.211060E-01    -0.468750E-01    -0.125000         0.205078E-01    -0.468750E-01    -0.156250         0.197388E-01    -0.468750E-01    -0.187500         0.187988E-01    -0.468750E-01    -0.218750         0.176880E-01    -0.468750E-01    -0.250000         0.164063E-01    -0.468750E-01    -0.281250         0.149536E-01    -0.468750E-01    -0.312500         0.133301E-01    -0.468750E-01    -0.343750         0.115356E-01    -0.468750E-01    -0.375000         0.957031E-02    -0.468750E-01    -0.406250         0.743408E-02    -0.468750E-01    -0.437500         0.512695E-02    -0.468750E-01    -0.468750         0.264893E-02    -0.468750E-01    -0.500000          0.00000        -0.468750E-01     0.500000          0.00000        -0.390625E-01     0.468750         0.368958E-02    -0.390625E-01     0.437500         0.714111E-02    -0.390625E-01     0.406250         0.103546E-01    -0.390625E-01     0.375000         0.133301E-01    -0.390625E-01     0.343750         0.160675E-01    -0.390625E-01     0.312500         0.185669E-01    -0.390625E-01     0.281250         0.208282E-01    -0.390625E-01     0.250000         0.228516E-01    -0.390625E-01     0.218750         0.246368E-01    -0.390625E-01     0.187500         0.261841E-01    -0.390625E-01     0.156250         0.274933E-01    -0.390625E-01     0.125000         0.285645E-01    -0.390625E-01     0.937500E-01     0.293976E-01    -0.390625E-01     0.625000E-01     0.299927E-01    -0.390625E-01     0.312500E-01     0.303497E-01    -0.390625E-01      0.00000         0.304688E-01    -0.390625E-01    -0.312500E-01     0.303497E-01    -0.390625E-01    -0.625000E-01     0.299927E-01    -0.390625E-01    -0.937500E-01     0.293976E-01    -0.390625E-01    -0.125000         0.285645E-01    -0.390625E-01    -0.156250         0.274933E-01    -0.390625E-01    -0.187500         0.261841E-01    -0.390625E-01    -0.218750         0.246368E-01    -0.390625E-01    -0.250000         0.228516E-01    -0.390625E-01    -0.281250         0.208282E-01    -0.390625E-01    -0.312500         0.185669E-01    -0.390625E-01    -0.343750         0.160675E-01    -0.390625E-01    -0.375000         0.133301E-01    -0.390625E-01    -0.406250         0.103546E-01    -0.390625E-01    -0.437500         0.714111E-02    -0.390625E-01    -0.468750         0.368958E-02    -0.390625E-01    -0.500000          0.00000        -0.390625E-01     0.500000          0.00000        -0.312500E-01     0.468750         0.454102E-02    -0.312500E-01     0.437500         0.878906E-02    -0.312500E-01     0.406250         0.127441E-01    -0.312500E-01     0.375000         0.164063E-01    -0.312500E-01     0.343750         0.197754E-01    -0.312500E-01     0.312500         0.228516E-01    -0.312500E-01     0.281250         0.256348E-01    -0.312500E-01     0.250000         0.281250E-01    -0.312500E-01     0.218750         0.303223E-01    -0.312500E-01     0.187500         0.322266E-01    -0.312500E-01     0.156250         0.338379E-01    -0.312500E-01     0.125000         0.351563E-01    -0.312500E-01     0.937500E-01     0.361816E-01    -0.312500E-01     0.625000E-01     0.369141E-01    -0.312500E-01     0.312500E-01     0.373535E-01    -0.312500E-01      0.00000         0.375000E-01    -0.312500E-01    -0.312500E-01     0.373535E-01    -0.312500E-01    -0.625000E-01     0.369141E-01    -0.312500E-01    -0.937500E-01     0.361816E-01    -0.312500E-01    -0.125000         0.351563E-01    -0.312500E-01    -0.156250         0.338379E-01    -0.312500E-01    -0.187500         0.322266E-01    -0.312500E-01    -0.218750         0.303223E-01    -0.312500E-01    -0.250000         0.281250E-01    -0.312500E-01    -0.281250         0.256348E-01    -0.312500E-01    -0.312500         0.228516E-01    -0.312500E-01    -0.343750         0.197754E-01    -0.312500E-01    -0.375000         0.164063E-01    -0.312500E-01    -0.406250         0.127441E-01    -0.312500E-01    -0.437500         0.878906E-02    -0.312500E-01    -0.468750         0.454102E-02    -0.312500E-01    -0.500000          0.00000        -0.312500E-01     0.500000          0.00000        -0.234375E-01     0.468750         0.520325E-02    -0.234375E-01     0.437500         0.100708E-01    -0.234375E-01     0.406250         0.146027E-01    -0.234375E-01     0.375000         0.187988E-01    -0.234375E-01     0.343750         0.226593E-01    -0.234375E-01     0.312500         0.261841E-01    -0.234375E-01     0.281250         0.293732E-01    -0.234375E-01     0.250000         0.322266E-01    -0.234375E-01     0.218750         0.347443E-01    -0.234375E-01     0.187500         0.369263E-01    -0.234375E-01     0.156250         0.387726E-01    -0.234375E-01     0.125000         0.402832E-01    -0.234375E-01     0.937500E-01     0.414581E-01    -0.234375E-01     0.625000E-01     0.422974E-01    -0.234375E-01     0.312500E-01     0.428009E-01    -0.234375E-01      0.00000         0.429688E-01    -0.234375E-01    -0.312500E-01     0.428009E-01    -0.234375E-01    -0.625000E-01     0.422974E-01    -0.234375E-01    -0.937500E-01     0.414581E-01    -0.234375E-01    -0.125000         0.402832E-01    -0.234375E-01    -0.156250         0.387726E-01    -0.234375E-01    -0.187500         0.369263E-01    -0.234375E-01    -0.218750         0.347443E-01    -0.234375E-01    -0.250000         0.322266E-01    -0.234375E-01    -0.281250         0.293732E-01    -0.234375E-01    -0.312500         0.26184
[...]
<CellData>
<DataArray type="Float32" Name="zeta" format="ascii">
     0.00000          0.00000          0.00000          0.00000          0.00000          0.00000          0.00000          0.00000          0.00000          0.00000          0.00000          0.00000          0.00000          0.00000          0.00000          0.00000          0.00000          0.00000          0.00000          0.00000          0.00000          0.00000          0.00000          0.00000          0.00000          0.00000          0.00000          0.00000          0.00000          0.00000          0.00000          0.00000          0.00000          0.00000          0.00000          0.00000          0.00000          0.00000          0.00000          0.00000          0.00000          0.00000          0.00000          0.00000          0.00000          0.00000          0.00000          0.00000          0.00000          0.00000          0.00000          0.00000          0.00000          0.00000          0.00000          0.00000          0.00000          0.00000          0.00000          0.00000          0.00000          0.00000          0.00000          0.00000          0.00000          0.00000          0.00000          0.00000          0.00000          0.00000          0.00000          0.00000          0.00000          0.00000          0.00000          0.00000          0.00000          0.00000          0.00000          0.00000          0.00000          0.00000          0.00000          0.00000          0.00000          0.00000          0.00000          0.00000          0.00000          0.00000          0.00000          0.00000          0.00000          0.00000          0.00000          0.00000          0.00000          0.00000          0.00000          0.00000          0.00000          0.00000          0.00000          0.00000          0.00000          0.00000          0.00000          0.00000          0.00000          0.00000          0.00000          0.00000          0.00000          0.00000          0.00000          0.00000          0.00000          0.00000          0.00000          0.00000          0.00000          0.00000          0.00000          0.00000          0.00000          0.00000          0.00000          0.00000          0.00000          0.00000          0.00000          0.00000          0.00000          0.00000          0.00000          0.00000          0.00000          0.00000          0.00000          0.00000          0.00000          0.00000          0.00000          0.00000          0.00000          0.00000          0.00000          0.00000          0.00000          0.00000          0.00000          0.00000          0.00000          0.00000          0.00000          0.00000          0.00000          0.00000          0.00000          0.00000          0.00000          0.00000          0.00000          0.00000          0.00000          0.00000          0.00000          0.00000          0.00000          0.00000          0.00000          0.00000          0.00000          0.00000          0.00000          0.00000          0.00000          0.00000          0.00000          0.00000          0.00000          0.00000          0.00000          0.00000          0.00000          0.00000          0.00000          0.00000          0.00000          0.00000          0.00000          0.00000          0.00000          0.00000          0.00000          0.00000          0.00000          0.00000          0.00000          0.00000          0.00000          0.00000          0.00000          0.00000          0.00000          0.00000          0.00000          0.00000          0.00000          0.00000          0.00000          0.00000          0.00000          0.00000          0.00000          0.00000          0.00000          0.00000          0.00000          0.00000          0.00000          0.00000          0.00000          0.00000          0.00000          0.00000          0.00000          0.00000          0.00000          0.00000          0.00000          0.00000          0.00000          0.00000          0.00000          0.00000          0.00000          0.00000          0.00000          0.00000          0.00000          0.00000          0.00000          0.00000          0.00000          0.00000          0.00000          0.00000          0.00000          0.00000          0.00000          0.00000          0.00000          0.00000          0.00000          0.00000          0.00000          0.00000          0.00000          0.00000          0.00000          0.00000          0.00000          0.00000          0.00000          0.00000          0.00000          0.00000          0.00000          0.00000          0.00000          0.00000          0.00000          0.00000          0.00000          0.00000          0.00000          0.00000          0.00000          0.00000          0.00000          0.00000          0.00000          0.00000          0.00000          0.00000          0.00000          0.00000         0.636291E-04     0.661294E-04     0.697183E-04     0.747507E-04     0.816427E-04     0.908918E-04     0.103116E-03     0.119120E-03     0.139979E-03     0.167293E-03     0.203147E-03     0.252511E-03     0.316181E-03     0.435874E-03     0.498763E-03     0.133442E-02    -0.894703E-04     0.536098E-03     0.461582E-02     0.733866E-02     0.891997E-02     0.961402E-02     0.959738E-02     0.898015E-02     0.784793E-02     0.629182E-02     0.442193E-02     0.236536E-02     0.255151E-03    -0.178593E-02    -0.366048E-02    -0.530625E-02    -0.669779E-02    -0.784030E-02    -0.875753E-02    -0.947832E-02    -0.100255E-01    -0.104106E-01    -0.106341E-01    -0.106911E-01    -0.105779E-01    -0.102982E-01    -0.986662E-02    -0.931135E-02    -0.868171E-02    -0.802984E-02    -0.760246E-02    -0.663356E-02    -0.109109E-01    -0.977748E-02    -0.119610E-02     0.629610E-02     0.123139E-01     0.164952E-01     0.188443E-01     0.196027E-01     0.191423E-01     0.178717E-01     0.161656E-01     0.143214E-01     0.125414E-01     0.109352E-01     0.953621E-02     0.832463E-02     0.725110E-02     0.625727E-02     0.529076E-02     0.431396E-02     0.330727E-02     0.226818E-02     0.120771E-02     0.145660E-03    -0.894027E-03    -0.188714E-02    -0.281190E-02    -0.365051E-02    -0.438961E-02    -0.502009E-02    -0.553643E-02    -0.593595E-02    -0.621806E-02    -0.638376E-02    -0.643523E-02    -0.637576E-02    -0.620965E-02    -0.594236E-02    -0.558054E-02    -0.513213E-02    -0.460632E-02    -0.401351E-02    -0.336515E-02    -0.267353E-02    -0.195155E-02    -0.121246E-02    -0.469545E-03     0.264130E-03     0.975967E-03     0.165407E-02     0.228746E-02     0.286623E-02     0.338171E-02     0.382655E-02     0.419483E-02     0.448214E-02     0.468555E-02     0.480371E-02     0.483673E-02     0.478624E-02     0.465528E-02     0.444823E-02     0.417071E-02     0.382947E-02     0.343226E-02     0.298766E-02     0.250496E-02     0.199397E-02     0.146485E-02     0.927964E-03     0.393709E-03    -0.127648E-03    -0.626081E-03    -0.109196E-02    -0.151590E-02    -0.188974E-02    -0.220178E-02    -0.245701E-02    -0.258246E-02    -0.284177E-02     0.635008E-04     0.659900E-04     0.695623E-04     0.745699E-04     0.814257E-04     0.906222E-04     0.102770E-03     0.118662E-03     0.139355E-03     0.166404E-03     0.201879E-03     0.250292E-03     0.313763E-03     0.423145E-03     0.520029E-03     0.103755E-02     0.112874E-02     0.181220E-02     0.284902E-02     0.371880E-02     0.451675E-02     0.525541E-02     0.588393E-02     0.631163E-02     0.643558E-02     0.616482E-02     0.544143E-02     0.425707E-02     0.266230E-02     0.764731E-03    -0.128576E-02    -0.332278E-02    -0.519424E-02    -0.678956E-02    -0.805514E-02    -0.899370E-02    -0.964898E-02    -0.100824E-01    -0.103506E-01    -0.104920E-01    -0.105234E-01    -0.104470E-01    -0.102604E-01    -0.996490E-02    -0.957474E-02    -0.909410E-02    -0.863573E-02    -0.775651E-02    -0.768179E-02    -0.657176E-02    -0.334987E-02     0.587028E-03     0.494252E-02     0.923077E-02     0.129899E-01     0.158601E-01     0.176393E-01     0.182959E-01     0.179456E-01     0.168044E-01     0.151344E-01     0.131938E-01     0.111998E-01     0.930810E-02     0.760759E-02     0.612754E-02     0.485248E-02     0.374003E-02     0.273782E-02     0.179702E-02     0.881094E-03    -0.302838E-04    -0.941252E-03    -0.184264E-02    -0.271630E-02    -0.353973E-02    -0.429013E-02    -0.494743E-02    -0.549608E-02    -0.592574E-02    -0.623113E-02    -0.641133E-02    -0.646881E-02    -0.640854E-02    -0.623719E-02    -0.596256E-02    -0.559325E-02    -0.513852E-02    -0.460826E-02    -0.401300E-02    -0.336392E-02    -0.267284E-02    -0.195213E-02    -0.121451E-02    -0.472916E-03     0.259836E-03     0.971249E-03     0.164942E-02     0.228330E-02     0.286285E-02     0.337928E-02     0.382513E-02     0.419440E-02     0.448261E-02     0.468679E-02     0.480558E-02     0.483910E-02     0.478898E-02     0.465829E-02     0.445142E-02     0.417400E-02     0.383281E-02     0.343559E-02     0.299094E-02     0.250815E-02     0.199703E-02     0.146774E-02     0.930659E-03     0.396175E-03    -0.125439E-03    -0.624156E-03    -0.109035E-02    -0.151461E-02    -0.188879E-02    -0.220118E-02    -0.245676E-02    -0.258262E-02    -0.284207E-02     0.632092E-04     0.656735E-04     0.692082E-04     0.741600E-04     0.809342E-04     0.900125E-04     0.101990E-03     0.117631E-03     0.137955E-03     0.164422E-03     0.199036E-03     0.245567E-03     0.307626E-03     0.402446E-03     0.525033E-03     0.774547E-03     0.115261E-02     0.165435E-02     0.226068E-02     0.289009E-02     0.348891E-02     0.401168E-02     0.442687E-02     0.471568E-02     0.486394E-02     0.485122E-02     0.464253E-02     0.418823E-02     0.343398E-02     0.233996E-02     0.903754E-03    -0.821683E-03    -0.272365E-02    -0.464424E-02    -0.641184E-02    -0.788037E-02    -0.896228E-02    -0.964307E-02    -0.997230E-02    -0.100360E-01    -0.992289E-02    -0.969815E-02    -0.939328E-02    -0.901125E-02    -0.854283E-02    -0.797187E-02    -0.731230E-02    -0.650163E-02    -0.538525E-02    -0.436497E-02    -0.313412E-02    -0.148749E-02     0.732987E-03     0.354741E-02     0.679585E-02     0.101690E-01     0.132851E-01     0.157799E-01     0.173825E-01     0.179618E-01     0.175357E-01     0.162499E-01     0.143355E-01     0.120579E-01     0.967083E-02     0.738049E-02     0.532659E-02     0.357840E-02     0.214349E-02     0.984323E-03     0.379430E-04    -0.765472E-03    -0.148803E-02    -0.217495E-02    -0.285075E-02    -0.352021E-02    -0.417229E-02    -0.478581E-02    -0.533531E-02    -0.579607E-02    -0.614779E-02    -0.637662E-02    -0.647582E-02    -0.644524E-02    -0.629012E-02    -0.601965E-02    -0.564547E-02    -0.518048E-02    -0.463801E-02    -0.403126E-02    -0.337312E-02    -0.267615E-02    -0.195262E-02    -0.121469E-02    -0.474391E-03     0.256328E-03     0.965735E-03     0.164247E-02     0.227575E-02     0.285561E-02     0.337315E-02     0.382071E-02     0.419202E-02     0.448236E-02     0.468859E-02     0.480917E-02     0.484417E-02     0.479519E-02     0.466530E-02     0.445894E-02     0.418180E-02     0.384068E-02     0.344339E-02     0.299857E-02     0.251551E-02     0.200404E-02     0.147435E-02     0.936800E-03     0.401786E-03    -0.120419E-03    -0.619781E-03    -0.108667E-02    -0.151168E-02    -0.188663E-02    -0.219982E-02    -0.245619E-02    -0.258298E-02    -0.284274E-02     0.627105E-04     0.651326E-04     0.686036E-04     0.734612E-04     0.800981E-04     0.889781E-04     0.100669E-03     0.115896E-03     0.135609E-03     0.161135E-03     0.194325E-03     0.238183E-03     0.296722E-03     0.378906E-03     0.494580E-03     0.670906E-03     0.907166E-03     0.118980E-02     0.150819E-02     0.184134E-02     0.218831E-02     0.255045E-02     0.291986E-02     0.327349E-02     0.357435E-02     0.377753E-02     0.383740E-02     0.371298E-02     0.336969E-02     0.277866E-02     0.191710E-02     0.773307E-03    -0.642104E-03    -0.228201E-02    -0.405285E-02    -0.581759E-02    -0.741632E-02    -0.870124E-02    -0.957396E-02    -0.100101E-01    -0.100597E-01    -0.982254E-02    -0.941029E-02    -0.891090E-02    -0.837033E-02    -0.779243E-02    -0.715709E-02    -0.642717E-02    -0.554071E-02    -0.438418E-02    -0.304120E-02    -0.157586E-02     0.419058E-04     0.187409E-02     0.397534E-02     0.634478E-02     0.889551E-02     0.114521E-01     0.137765E-01     0.156141E-01     0.167454E-01     0.170311E-01     0.164379E-01     0.150417E-01     0.130099E-01     0.105674E-01     0.795742E-02     0.540332E-02     0.308044E-02     0.110007E-02    -0.493063E-03    -0.171206E-02    -0.261175E-02    -0.326945E-02    -0.376668E-02    -0.417452E-02    -0.454441E-02    -0.490449E-02    -0.526076E-02    -0.560176E-02    -0.590490E-02    -0.614322E-02    -0.629117E-02    -0.632882E-02    -0.624427E-02    -0.603420E-02    -0.570319E-02    -0.526208E-02    -0.472595E-02    -0.411220E-02    -0.343887E-02    -0.272344E-02    -0.198216E-02    -0.122977E-02    -0.479517E-03     0.256619E-03     0.967691E-03     0.164355E-02     0.227470E-02     0.285231E-02     0.336829E-02     0.381540E-02     0.418750E-02     0.447969E-02     0.468853E-02     0.481210E-02     0.485010E-02     0.480385E-02     0.467620E-02     0.447151E-02     0.419544E-02     0.385485E-02     0.345763E-02     0.301250E-02     0.252887E-02     0.201665E-02     0.148607E-02     0.947547E-03     0.411487E-03    -0.111821E-03    -0.612342E-03    -0.108044E-02    -0.150671E-02    -0.188297E-02    -0.219752E-02    -0.245522E-02    -0.258361E-02    -0.284391E-02     0.619546E-04     0.643137E-04     0.676901E-04     0.724078E-04     0.788416E-04     0.874296E-04     0.987029E-04     0.113327E-03     0.132163E-03     0.156373E-03     0.187561E-03     0.228081E-03     0.281314E-03     0.352653E-03     0.449754E-03     0.584346E-03     0.758623E-03     0.959426E-03     0.119261E-02     0.145021E-02     0.172004E-02     0.198777E-02     0.223994E-02     0.246596E-02     0.265752E-02     0.280537E-02     0.289489E-02     0.290294E-02     0.279765E-02     0.254159E-02     0.209713E-02     0.143224E-02     0.526149E-03    -0.624896E-03    -0.200052E-02    -0.354796E-02    -0.517608E-02    -0.675735E-02    -0.814338E-02    -0.919412E-02    -0.981301E-02    -0.997436E-02    -0.972930E-02    -0.918570E-02    -0.846956E-02    -0.768404E-02    -0.688347E-02    -0.606775E-02    -0.517249E-02    -0.417236E-02    -0.306091E-02    -0.181066E-02    -0.422394E-03     0.109965E-02     0.275150E-02     0.452875E-02     0.641809E-02     0.838373E-02     0.103545E-01     0.122184E-01     0.138288E-01     0.150229E-01     0.156492E-01     0.155966E-01     0.148190E-01     0.133482E-01     0.112926E-01     0.882203E-02     0.614251E-02     0.346563E-02     0.979734E-03    -0.117260E-02    -0.290721E-02    -0.420023E-02    -0.508040E-02    -0.561458E-02    -0.589002E-02    -0.599701E-02    -0.601452E-02    -0.600083E-02    -0.598944E-02    -0.598997E-02    -0.599275E-02    -0.597545E-02    -0.591038E-02    -0.577099E-02    -0.553674E-02    -0.519598E-02    -0.474687E-02    -0.419663E-02    -0.355969E-02    -0.285527E-02    -0.210490E-02    -0.133033E-02    -0.551850E-03     0.212588E-03     0.947840E-03     0.164149E-02     0.228355E-02     0.286597E-02     0.338223E-02     0.382695E-02     0.419573E-02     0.448502E-02     0.469222E-02     0.481574E-02     0.485522E-02     0.481158E-02     0.468721E-02     0.448590E-02     0.421287E-02     0.387467E-02     0.347899E-02     0.303452E-02     0.255073E-02     0.203765E-02     0.150569E-02     0.965405E-03     0.427367E-03    -0.980356E-04    -0.600694E-03    -0.107093E-02    -0.149932E-02    -0.187767E-02    -0.219431E-02    -0.245401E-02    -0.258478E-02    -0.284585E-02     0.608864E-04     0.631587E-04     0.664048E-04     0.709309E-04     0.770876E-04     0.852800E-04     0.959914E-04     0.109816E-03     0.127504E-03     0.150035E-03     0.178718E-03     0.215344E-03     0.262393E-03     0.323315E-03     0.402806E-03     0.506411E-03     0.631209E-03     0.767068E-03     0.919297E-03     0.108405E-02     0.125900E-02     0.144220E-02     0.163027E-02     0.181650E-02     0.199003E-02     0.213651E-02     0.223961E-02     0.228238E-02     0.224755E-02     0.211678E-02     0.186943E-02     0.148236E-02     0.931540E-03     0.195851E-03    -0.737506E-03    -0.186643E-02    -0.316676E-02    -0.458533E-02    -0.603566E-02    -0.740003E-02    -0.854259E-02    -0.933464E-02    -0.968638E-02    -0.957417E-02    -0.904971E-02    -0.822400E-02    -0.723079E-02    -0.618163E-02    -0.516147E-02    -0.408952E-02    -0.298071E-02    -0.182609E-02    -0.613942E-03     0.668405E-03     0.202941E-02     0.346945E-02     0.497901E-02     0.653776E-02     0.811328E-02     0.965876E-02     0.111106E-01     0.123874E-01     0.133931E-01     0.140250E-01     0.141862E-01     0.138025E-01     0.128376E-01     0.113057E-01     0.927648E-02     0.687111E-02     0.424986E-02     0.159271E-02    -0.923133E-03    -0.314499E-02    -0.496186E-02    -0.631431E-02    -0.719602E-02    -0.764750E-02    -0.774371E-02    -0.757850E-02    -0.724864E-02    -0.684006E-02    -0.641824E-02    -0.602343E-02    -0.567070E-02    -0.535387E-02    -0.505196E-02    -0.473668E-02    -0.437950E-02    -0.395733E-02    -0.345619E-02    -0.287273E-02    -0.221380E-02    -0.149469E-02    -0.736387E-03     0.372732E-04     0.802308E-03     0.153669E-02     0.222174E-02     0.284278E-02     0.338918E-02     0.385394E-02     0.423306E-02     0.452483E-02     0.472915E-02     0.484705E-02     0.488039E-02     0.483171E-02     0.470427E-02     0.450209E-02     0.423012E-02     0.389428E-02     0.350155E-02     0.305993E-02     0.257832E-02     0.206641E-02     0.153445E-02     0.993031E-03     0.452862E-03    -0.754316E-04    -0.581489E-03    -0.105539E-02    -0.148753E-02    -0.186956E-02    -0.218975E-02    -0.245269E-02    -0.258709E-02    -0.284930E-02     0.594484E-04     0.616075E-04     0.646844E-04     0.689629E-04     0.747639E-04     0.824527E-04     0.924563E-04     0.105287E-03     0.121576E-03     0.142112E-03     0.167909E-03     0.200276E-03     0.240910E-03     0.291975E-03     0.356170E-03     0.436497E-03     0.529218E-03     0.627911E-03     0.738647E-03     0.859571E-03     0.988004E-03     0.112028E-02     0.125210E-02     0.137897E-02     0.149617E-02     0.159825E-02     0.167811E-02     0.172606E-02     0.172948E-02     0.167313E-02     0.153999E-02     0.131222E-02     0.971919E-03     0.502009E-03    -0.112517E-03    -0.882239E-03    -0.180967E-02    -0.288443E-02    -0.407758E-02    -0.533601E-02    -0.657909E-02    -0.770055E-02    -0.857932E-02    -0.910063E-02    -0.918389E-02    -0.880829E-02    -0.802399E-02    -0.693903E-02    -0.576775E-02    -0.457792E-02    -0.334262E-02    -0.208960E-02    -0.835541E-03     0.413631E-03     0.166002E-02     0.290969E-02     0.416797E-02     0.543503E-02     0.670251E-02     0.795148E-02     0.915160E-02     0.102612E-01     0.112285E-01     0.119929E-01     0.124891E-01     0.126510E-01     0.124196E-01     0.117507E-01     0.106245E-01     0.905287E-02     0.708500E-02     0.480760E-02     0.234016E-02    -0.175323E-03    -0.258859E-02    -0.475751E-02    -0.656386E-02    -0.792602E-02    -0.880650E-02    -0.921326E-02    -0.919485E-02    -0.883048E-02    -0.821689E-02    -0.745430E-02    -0.663365E-02    -0.582689E-02    -0.508148E-02    -0.441918E-02    -0.383885E-02    -0.332207E-02    -0.284035E-02    -0.236250E-02    -0.186103E-02    -0.131678E-02    -0.721410E-03    -0.777247E-04     0.601675E-03     0.129701E-02     0.198450E-02     0.263949E-02     0.323921E-02     0.376469E-02     0.420186E-02     0.454193E-02     0.478098E-02     0.491921E-02     0.496001E-02     0.490891E-02     0.477276E-02     0.455909E-02     0.427567E-02     0.393039E-02     0.353120E-02     0.308623E-02     0.260388E-02     0.209297E-02     0.15627