<VTKFile type="UnstructuredGrid">
<UnstructuredGrid>
<Piece NumberOfPoints=" 3360" NumberOfCells=" 3360">                           
<Points>
<DataArray type="Float32" NumberOfComponents="3" format="ascii">
    0.484332         0.355795E-03    -0.585931E-01     0.453015         0.104390E-02    -0.585932E-01     0.421725         0.168542E-02    -0.585933E-01     0.390459         0.228060E-02    -0.585934E-01     0.359208         0.282967E-02    -0.585935E-01     0.327967         0.333281E-02    -0.585936E-01     0.296730         0.379013E-02    -0.585936E-01     0.265496         0.420169E-02    -0.585937E-01     0.234262         0.456751E-02    -0.585937E-01     0.203028         0.488761E-02    -0.585937E-01     0.171794         0.516197E-02    -0.585937E-01     0.140560         0.539061E-02    -0.585937E-01     0.109325         0.557355E-02    -0.585937E-01     0.780895E-01     0.571074E-02    -0.585937E-01     0.468538E-01     0.580220E-02    -0.585937E-01     0.156179E-01     0.584796E-02    -0.585937E-01    -0.156179E-01     0.584796E-02    -0.585937E-01    -0.468538E-01     0.580220E-02    -0.585937E-01    -0.780895E-01     0.571074E-02    -0.585937E-01    -0.109325         0.557355E-02    -0.585937E-01    -0.140560         0.539061E-02    -0.585937E-01    -0.171794         0.516197E-02    -0.585937E-01    -0.203028         0.488761E-02    -0.585937E-01    -0.234262         0.456751E-02    -0.585937E-01    -0.265496         0.420169E-02    -0.585937E-01    -0.296730         0.379013E-02    -0.585936E-01    -0.327967         0.333281E-02    -0.585936E-01    -0.359208         0.282967E-02    -0.585935E-01    -0.390459         0.228060E-02    -0.585934E-01    -0.421725         0.168542E-02    -0.585933E-01    -0.453015         0.104390E-02    -0.585932E-01    -0.484332         0.355795E-03    -0.585931E-01     0.484343         0.101921E-02    -0.507796E-01     0.453041         0.299081E-02    -0.507799E-01     0.421758         0.482956E-02    -0.507801E-01     0.390492         0.653588E-02    -0.507804E-01     0.359238         0.811018E-02    -0.507806E-01     0.327992         0.955287E-02    -0.507808E-01     0.296751         0.108642E-01    -0.507809E-01     0.265513         0.120442E-01    -0.507810E-01     0.234276         0.130931E-01    -0.507811E-01     0.203039         0.140108E-01    -0.507811E-01     0.171803         0.147974E-01    -0.507812E-01     0.140566         0.154530E-01    -0.507812E-01     0.109330         0.159774E-01    -0.507812E-01     0.780928E-01     0.163708E-01    -0.507812E-01     0.468558E-01     0.166330E-01    -0.507812E-01     0.156186E-01     0.167641E-01    -0.507812E-01    -0.156186E-01     0.167641E-01    -0.507812E-01    -0.468558E-01     0.166330E-01    -0.507812E-01    -0.780928E-01     0.163708E-01    -0.507812E-01    -0.109330         0.159774E-01    -0.507812E-01    -0.140566         0.154530E-01    -0.507812E-01    -0.171803         0.147974E-01    -0.507812E-01    -0.203039         0.140108E-01    -0.507811E-01    -0.234276         0.130931E-01    -0.507811E-01    -0.265513         0.120442E-01    -0.507810E-01    -0.296751         0.108642E-01    -0.507809E-01    -0.327992         0.955287E-02    -0.507808E-01    -0.359238         0.811018E-02    -0.507806E-01    -0.390492         0.653588E-02    -0.507804E-01    -0.421758         0.482956E-02    -0.507801E-01    -0.453041         0.299081E-02    -0.507799E-01    -0.484343         0.101921E-02    -0.507796E-01     0.484352         0.158708E-02    -0.429666E-01     0.453064         0.465775E-02    -0.429669E-01     0.421789         0.752227E-02    -0.429672E-01     0.390524         0.101810E-01    -0.429675E-01     0.359269         0.126344E-01    -0.429678E-01     0.328020         0.148827E-01    -0.429680E-01     0.296775         0.169263E-01    -0.429682E-01     0.265533         0.187654E-01    -0.429683E-01     0.234292         0.204000E-01    -0.429685E-01     0.203053         0.218302E-01    -0.429685E-01     0.171814         0.230561E-01    -0.429686E-01     0.140575         0.240777E-01    -0.429687E-01     0.109336         0.248949E-01    -0.429687E-01     0.780971E-01     0.255079E-01    -0.429687E-01     0.468583E-01     0.259165E-01    -0.429687E-01     0.156194E-01     0.261208E-01    -0.429687E-01    -0.156194E-01     0.261208E-01    -0.429687E-01    -0.468583E-01     0.259165E-01    -0.429687E-01    -0.780971E-01     0.255079E-01    -0.429687E-01    -0.109336         0.248949E-01    -0.429687E-01    -0.140575         0.240777E-01    -0.429687E-01    -0.171814         0.230561E-01    -0.429686E-01    -0.203053         0.218302E-01    -0.429685E-01    -0.234292         0.204000E-01    -0.429685E-01    -0.265533         0.187654E-01    -0.429683E-01    -0.296775         0.169263E-01    -0.429682E-01    -0.328020         0.148827E-01    -0.429680E-01    -0.359269         0.126344E-01    -0.429678E-01    -0.390524         0.101810E-01    -0.429675E-01    -0.421789         0.752227E-02    -0.429672E-01    -0.453064         0.465775E-02    -0.429669E-01    -0.484352         0.158708E-02    -0.429666E-01     0.484360         0.205977E-02    -0.351540E-01     0.453084         0.604553E-02    -0.351543E-01     0.421816         0.976443E-02    -0.351546E-01     0.390554         0.132167E-01    -0.351549E-01     0.359299         0.164027E-01    -0.351552E-01     0.328048         0.193227E-01    -0.351554E-01     0.296800         0.219768E-01    -0.351556E-01     0.265554         0.243653E-01    -0.351558E-01     0.234311         0.264883E-01    -0.351559E-01     0.203068         0.283458E-01    -0.351560E-01     0.171826         0.299379E-01    -0.351561E-01     0.140585         0.312646E-01    -0.351561E-01     0.109343         0.323260E-01    -0.351562E-01     0.781023E-01     0.331220E-01    -0.351562E-01     0.468614E-01     0.336527E-01    -0.351562E-01     0.156205E-01     0.339180E-01    -0.351562E-01    -0.156205E-01     0.339180E-01    -0.351562E-01    -0.468614E-01     0.336527E-01    -0.351562E-01    -0.781023E-01     0.331220E-01    -0.351562E-01    -0.109343         0.323260E-01    -0.351562E-01    -0.140585         0.312646E-01    -0.351561E-01    -0.171826         0.299379E-01    -0.351561E-01    -0.203068         0.283458E-01    -0.351560E-01    -0.234311         0.264883E-01    -0.351559E-01    -0.265554         0.243653E-01    -0.351558E-01    -0.296800         0.219768E-01    -0.351556E-01    -0.328048         0.193227E-01    -0.351554E-01    -0.359299         0.164027E-01    -0.351552E-01    -0.390554         0.132167E-01    -0.351549E-01    -0.421816         0.976443E-02    -0.351546E-01    -0.453084         0.604553E-02    -0.351543E-01    -0.484360         0.205977E-02    -0.351540E-01     0.484366         0.243758E-02    -0.273417E-01     0.453100         0.715487E-02    -0.273419E-01     0.421839         0.115569E-01    -0.273422E-01     0.390581         0.156439E-01    -0.273425E-01     0.359326         0.194160E-01    -0.273427E-01     0.328074         0.228733E-01    -0.273429E-01     0.296825         0.260160E-01    -0.273431E-01     0.265577         0.288443E-01    -0.273432E-01     0.234330         0.313581E-01    -0.273434E-01     0.203085         0.335577E-01    -0.273435E-01     0.171840         0.354429E-01    -0.273436E-01     0.140596         0.370139E-01    -0.273436E-01     0.109352         0.382707E-01    -0.273437E-01     0.781084E-01     0.392132E-01    -0.273437E-01     0.468650E-01     0.398416E-01    -0.273437E-01     0.156217E-01     0.401558E-01    -0.273437E-01    -0.156217E-01     0.401558E-01    -0.273437E-01    -0.468650E-01     0.398416E-01    -0.273437E-01    -0.781084E-01     0.392132E-01    -0.273437E-01    -0.109352         0.382707E-01    -0.273437E-01    -0.140596         0.370139E-01    -0.273436E-01    -0.171840         0.354429E-01    -0.273436E-01    -0.203085         0.335577E-01    -0.273435E-01    -0.234330         0.313581E-01    -0.273434E-01    -0.265577         0.288443E-01    -0.273432E-01    -0.296825         0.260160E-01    -0.273431E-01    -0.328074         0.228733E-01    -0.273429E-01    -0.359326         0.194160E-01    -0.273427E-01    -0.390581         0.156439E-01    -0.273425E-01    -0.421839         0.115569E-01    -0.273422E-01    -0.453100         0.715487E-02    -0.273419E-01    -0.484366         0.243758E-02    -0.273417E-01     0.484370         0.272074E-02    -0.195296E-01     0.453112         0.798635E-02    -0.195298E-01     0.421856         0.129005E-01    -0.195300E-01     0.390602         0.174634E-01    -0.195302E-01     0.359349         0.216749E-01    -0.195304E-01     0.328097         0.255352E-01    -0.195305E-01     0.296847         0.290445E-01    -0.195307E-01     0.265598         0.322027E-01    -0.195308E-01     0.234349         0.350098E-01    -0.195309E-01     0.203102         0.374660E-01    -0.195310E-01     0.171854         0.395712E-01    -0.195311E-01     0.140608         0.413256E-01    -0.195311E-01     0.109361         0.427290E-01    -0.195312E-01     0.781150E-01     0.437816E-01    -0.195312E-01     0.468689E-01     0.444833E-01    -0.195312E-01     0.156230E-01     0.448342E-01    -0.195312E-01    -0.156230E-01     0.448342E-01    -0.195312E-01    -0.468689E-01     0.444833E-01    -0.195312E-01    -0.781150E-01     0.437816E-01    -0.195312E-01    -0.109361         0.427290E-01    -0.195312E-01    -0.140608         0.413256E-01    -0.195311E-01    -0.171854         0.395712E-01    -0.195311E-01    -0.203102         0.374660E-01    -0.195310E-01    -0.234349         0.350098E-01    -0.195309E-01    -0.265598         0.322027E-01    -0.195308E-01    -0.296847         0.290445E-01    -0.195307E-01    -0.328097         0.255352E-01    -0.195305E-01    -0.359349         0.216749E-01    -0.195304E-01    -0.390602         0.174634E-01    -0.195302E-01    -0.421856         0.129005E-01    -0.195300E-01    -0.453112         0.798635E-02    -0.195298E-01    -0.484370         0.272074E-02    -0.195296E-01  
[...]
<PointData Vectors="Velocity">                                                 
<DataArray type="Float32" Name="velocity" NumberOfComponents="3"  format="ascii">
    -1.46271         0.253368E-01    -0.866999E-01     -1.48324         0.705284E-02    -0.917152E-01     -1.48909        -0.614792E-02    -0.826519E-01     -1.49134        -0.147743E-01    -0.721801E-01     -1.49287        -0.201851E-01    -0.626474E-01     -1.49445        -0.235922E-01    -0.546344E-01     -1.49629        -0.257774E-01    -0.480546E-01     -1.49850        -0.271376E-01    -0.425929E-01     -1.50110        -0.278401E-01    -0.379247E-01     -1.50411        -0.279555E-01    -0.337950E-01     -1.50752        -0.275163E-01    -0.300169E-01     -1.51128        -0.265454E-01    -0.264572E-01     -1.51535        -0.250694E-01    -0.230173E-01     -1.51967        -0.231150E-01    -0.196169E-01     -1.52414        -0.207057E-01    -0.161958E-01     -1.52869        -0.178695E-01    -0.126845E-01     -1.53323        -0.146261E-01    -0.901926E-02     -1.53767        -0.109903E-01    -0.512326E-02     -1.54194        -0.697081E-02    -0.907071E-03     -1.54598        -0.257557E-02     0.375131E-02     -1.54971         0.219597E-02     0.899477E-02     -1.55310         0.733628E-02     0.150218E-01     -1.55610         0.128201E-01     0.220919E-01     -1.55866         0.185872E-01     0.305500E-01     -1.56073         0.244954E-01     0.408561E-01     -1.56223         0.302453E-01     0.536082E-01     -1.56302         0.352586E-01     0.695560E-01     -1.56287         0.384702E-01     0.895453E-01     -1.56120         0.380730E-01     0.114337         -1.55671         0.312603E-01     0.144068         -1.54554         0.142011E-01     0.176401         -1.51412        -0.165577E-01     0.196216         -1.45304         0.867591E-01    -0.993004E-01     -1.48135         0.645503E-01    -0.110998         -1.48802         0.441368E-01    -0.107754         -1.49039         0.266078E-01    -0.102169         -1.49203         0.120220E-01    -0.957176E-01     -1.49380         0.232248E-03    -0.888304E-01     -1.49592        -0.907113E-02    -0.817989E-01     -1.49843        -0.162513E-01    -0.748378E-01     -1.50135        -0.216484E-01    -0.680405E-01     -1.50467        -0.255299E-01    -0.614277E-01     -1.50837        -0.280906E-01    -0.549532E-01     -1.51243        -0.294716E-01    -0.485411E-01     -1.51679        -0.297743E-01    -0.421099E-01     -1.52137        -0.290917E-01    -0.355645E-01     -1.52610        -0.274970E-01    -0.288296E-01     -1.53089        -0.250898E-01    -0.218145E-01     -1.53565        -0.219624E-01    -0.144427E-01     -1.54030        -0.182311E-01    -0.662314E-02     -1.54476        -0.140124E-01     0.173753E-02     -1.54898        -0.945350E-02     0.107683E-01     -1.55290        -0.469812E-02     0.206082E-01     -1.55647         0.668574E-04     0.314509E-01     -1.55965         0.462022E-02     0.435256E-01     -1.56239         0.866511E-02     0.571227E-01     -1.56465         0.117925E-01     0.725894E-01     -1.56634         0.134143E-01     0.903091E-01     -1.56731         0.126735E-01     0.110684         -1.56730         0.835048E-02     0.133998         -1.56571        -0.123114E-02     0.160217         -1.56107        -0.181498E-01     0.188474         -1.54881        -0.444864E-01     0.215612         -1.50853        -0.804148E-01     0.225791         -1.44195         0.140560        -0.852305E-01     -1.47618         0.120597        -0.994958E-01     -1.48278         0.980984E-01    -0.104096         -1.48516         0.756648E-01    -0.107132         -1.48734         0.546199E-01    -0.107962         -1.48996         0.358369E-01    -0.106409         -1.49300         0.196375E-01    -0.102883         -1.49640         0.600722E-02    -0.979351E-01     -1.50013        -0.524362E-02    -0.919896E-01     -1.50417        -0.143057E-01    -0.853270E-01     -1.50853        -0.213650E-01    -0.780773E-01     -1.51317        -0.265760E-01    -0.702911E-01     -1.51806        -0.300720E-01    -0.619683E-01     -1.52313        -0.320008E-01    -0.530882E-01     -1.52828        -0.325115E-01    -0.436176E-01     -1.53344        -0.317944E-01    -0.335308E-01     -1.53850        -0.300557E-01    -0.227916E-01     -1.54339        -0.275335E-01    -0.113711E-01     -1.54804        -0.244829E-01     0.781658E-03     -1.55237        -0.211913E-01     0.137239E-01     -1.55633        -0.179528E-01     0.275422E-01     -1.55987        -0.151094E-01     0.423408E-01     -1.56295        -0.130396E-01     0.582439E-01     -1.56552        -0.122021E-01     0.753811E-01     -1.56751        -0.131638E-01     0.938739E-01     -1.56883        -0.166088E-01     0.113770         -1.56936        -0.234058E-01     0.135018         -1.56882        -0.345446E-01     0.157346         -1.56669        -0.510985E-01     0.180188         -1.56157        -0.739673E-01     0.202539         -1.54855        -0.103442         0.222361         -1.50133        -0.137015         0.228889         -1.43196         0.185595        -0.546888E-01     -1.46897         0.170311        -0.666194E-01     -1.47411         0.148868        -0.782005E-01     -1.47615         0.124980        -0.908842E-01     -1.47905         0.100549        -0.101247         -1.48291         0.770455E-01    -0.108000         -1.48734         0.553344E-01    -0.111219         -1.49208         0.358593E-01    -0.111445         -1.49705         0.187833E-01    -0.109227         -1.50222         0.416196E-02    -0.104982         -1.50759        -0.803033E-02    -0.989905E-01     -1.51316        -0.178525E-01    -0.914403E-01     -1.51888        -0.254194E-01    -0.824510E-01     -1.52466        -0.308878E-01    -0.721363E-01     -1.53043        -0.344880E-01    -0.605796E-01     -1.53608        -0.364948E-01    -0.478965E-01     -1.54152        -0.372495E-01    -0.341765E-01     -1.54666        -0.371135E-01    -0.195300E-01     -1.55142        -0.364901E-01    -0.403057E-02     -1.55574        -0.357812E-01     0.122398E-01     -1.55956        -0.354126E-01     0.292478E-01     -1.56284        -0.358098E-01     0.469471E-01     -1.56551        -0.374369E-01     0.653077E-01     -1.56753        -0.407868E-01     0.842587E-01     -1.56884        -0.464150E-01     0.103675         -1.56935        -0.549083E-01     0.123327         -1.56896        -0.668957E-01     0.142848         -1.56750        -0.829343E-01     0.161721         -1.56458        -0.103427         0.179349         -1.55904        -0.128358         0.195273         -1.54604        -0.156988         0.209262         -1.49517        -0.185015         0.218059         -1.42589         0.221869        -0.103785E-01     -1.46122         0.211291        -0.146819E-01     -1.46311         0.192268        -0.318914E-01     -1.46430         0.169277        -0.545187E-01     -1.46788         0.144177        -0.758611E-01     -1.47310         0.118493        -0.932269E-01     -1.47912         0.933655E-01    -0.106012         -1.48547         0.695990E-01    -0.114408         -1.49200         0.477417E-01    -0.118815         -1.49865         0.281562E-01    -0.119610         -1.50542         0.110689E-01    -0.117115         -1.51225        -0.341920E-02    -0.111609         -1.51910        -0.153434E-01    -0.103362         -1.52586        -0.248441E-01    -0.926637E-01     -1.53244        -0.322091E-01    -0.798195E-01     -1.53871        -0.377923E-01    -0.651735E-01     -1.54457        -0.420471E-01    -0.490632E-01     -1.54993        -0.454427E-01    -0.318248E-01     -1.55472        -0.484804E-01    -0.137505E-01     -1.55889        -0.516192E-01     0.489435E-02     -1.56238        -0.553281E-01     0.239019E-01     -1.56515        -0.600229E-01     0.430807E-01     -1.56715        -0.661259E-01     0.622412E-01     -1.56834        -0.740421E-01     0.811598E-01     -1.56867        -0.841686E-01     0.995477E-01     -1.56810        -0.968796E-01     0.117036         -1.56660        -0.112474         0.133176         -1.56412        -0.131114         0.147513         -1.56051        -0.152738         0.159773         -1.55493        -0.176905         0.170368         -1.54298        -0.202525         0.180996         -1.49305        -0.224391         0.197898         -1.42659         0.249805         0.487028E-01     -1.45407         0.241878         0.573394E-01     -1.45078         0.224993         0.350779E-01     -1.45062         0.203977         0.175246E-02     -1.45470         0.180112        -0.321856E-01     -1.46121         0.154566        -0.624365E-01     -1.46884         0.128446        -0.874394E-01     -1.47693         0.102719        -0.106774         -1.48523         0.781658E-01    -0.120446         -1.49364         0.553930E-01    -0.128639         -1.50209         0.348174E-01    -0.131608         -1.51051         0.166737E-01    -0.129709         -1.51877         0.100659E-02    -0.123409         -1.52674        -0.123336E-01    -0.113275         -1.53429        -0.236565E-01    -0.999791E-01     -1.54127        -0.333781E-01    -0.842326E-01     -1.54757        -0.419960E-01    -0.667404E-01     -1.55312        -0.499997E-01    -0.481458E-01     -1.55785        -0.578660E-01    -0.289891E-01     -1.56173        -0.659966E-01    -0.969197E-02     -1.56473        -0.747443E-01     0.941568E-02     -1.56683        -0.844119E-01     0.280820E-01     -1.56800        -0.952553E-01     0.460604E-01     -1.56823        -0.107509         0.630811E-01     -1.56750        -0.121379         0.788327E-01     -1.56582        -0.137011         0.929500E-01     -1.56326        -0.154477         0.105091         -1.55992        -0.173716         0.115036         -1.55587        -0.194519         0.122941         -1.55075        -0.216439         0.130091         -1.54089        -0.238493         0.139845         -1.49812        -0.255635         0.170006         -1.43701         0.269861         0.127509         -1.44794         0.260407         0.154187         -1.43778         0.243973         0.125648         -1.43591         0.224805         0.789794E-01     -1.44031         0.203160         0.290406E-01     -1.44798         0.179609        -0.176960E-01     -1.45717         0.154981        -0.582540E-01     -1.46706         0.130157        -0.912911E-01     -1.47727         0.105899        -0.116271         -1.48764         0.828391E-01    -0.133137         -1.49802         0.613916E-01    -0.142186         -1.50824         0.417705E-01    -0.144051         -1.51813         0.239731E-01    -0.139658         -1.52746         0.780700E-02    -0.130177         -1.53606        -0.705311E-02    -0.116906         -1.54377        -0.210063E-01    -0.101125         -1.55047        -0.344556E-01    -0.839725E-01     -1.55613        -0.477448E-01    -0.663385E-01     -1.56072        -0.611455E-01    -0.488376E-01     -1.56424        -0.748451E-01    -0.318265E-01     -1.56672        -0.889624E-01    -0.154970E-01     -1.56815        -0.103591         0.275930E-04     -1.56854        -0.118811         0.146102E-01     -1.56788        -0.134691         0.280332E-01     -1.56622        -0.151306         0.400216E-01     -1.56361        -0.168672         0.502839E-01     -1.56021        -0.186786         0.586172E-01     -1.55624        -0.205557         0.650464E-01     -1.55202        -0.224855         0.700924E-01     -1.54781        -0.244469         0.757510E-01     -1.54070        -0.263720         0.866796E-01     -1.51395        -0.279446         0.133420         -1.45949         0.281999         0.236642         -1.44222         0.264469         0.287377         -1.42451         0.245659         0.248966         -1.42078         0.227335         0.181999         -1.42527         0.208492         0.107986         -1.43395         0.188861         0.373591E-01     -1.44469         0.168638        -0.243851E-01     -1.45646         0.148205        -0.744525E-01     -1.46877         0.127916        -0.111724         -1.48133         0.108057        -0.136228         -1.49385         0.887790E-01    -0.148922         -1.50606         0.701171E-01    -0.151511         -1.51765         0.519676E-01    -0.146245         -1.52832         0.341676E-01    -0.135639         -1.53786         0.165158E-01    -0.122120         -1.54612        -0.116224E-02    -0.107720         -1.55306        -0.189970E-01    -0.938416E-01     -1.55871        -0.370366E-01    -0.811854E-01     -1.56313        -0.552758E-01    -0.698590E-01     -1.56638        -0.736615E-01    -0.595929E-01     -1.56850        -0.921398E-01    -0.500056E-01     -1.56950        -0.110655        -0.408344E-01     -1.56939        -0.129191        -0.320492E-01     -1.56816        -0.147725        -0.238441E-01     -1.56588        -0.166262        -0.165445E-01     -1.56265        -0.184788        -0.104432E-01     -1.55870        -0.203304        -0.566651E-02     -1.55436        -0.221789        -0.197655E-02     -1.55011        -0.240255         0.147352E-02     -1.54710        -0.258827         0.719626E-02     -1.54256        -0.277025         0.213754E-01     -1.54502        -0.296500         0.839335E-01     -1.50958         0.292481         0.564293         -1.42164         0.257674         0.527963         -1.39482         0.235374         0.438219         -1.38864         0.216974         0.330999         -1.39400         0.200388         0.220801         -1.40577         0.184509         0.119536         -1.42098         0.168740         0.349172E-01     -1.43794         0.152781        -0.291480E-01     -1.45561         0.136464        -0.718793E-01     -1.47323         0.119701        -0.949528E-01     -1.49012         0.102444        -0.101940         -1.50570         0.846951E-01    -0.976277E-01     -1.51950         0.664789E-01    -0.872793E-01     -1.53127         0.478539E-01    -0.757740E-01     -1.54095         0.288910E-01    -0.668624E-01     -1.54875         0.967907E-02    -0.626582E-01     -1.55496        -0.971784E-02    -0.635696E-01     -1.55991        -0.292465E-01    -0.686046E-01     -1.56386        -0.488725E-01    -0.760194E-01     -1.56691        -0.685531E-01    -0.840098E-01     -1.56903        -0.882573E-01    -0.913008E-01     -1.57009        -0.107942        -0.973877E-01     -1.56996        -0.127561        -0.102483         -1.56857        -0.147054        -0.107189         -1.56596        -0.166383        -0.112187         -1.56232        -0.185523        -0.117919         -1.55793        -0.204480        -0.124491         -1.55333        -0.223291        -0.131606         -1.54907        -0.242042        -0.138428         -1.54835        -0.261283        -0.143699         -1.54394        -0.279842        -0.139089         -1.64063        -0.317872        -0.117397         -1.50299         0.646199E-05     0.944318E-04     -1.50297         0.709534E-05     0.135009E-03     -1.50295         0.779362E-05     0.192237E-03     -1.50292         0.858919E-05     0.267742E-03     -1.50287         0.952806E-05     0.364585E-03     -1.50281         0.106757E-04     0.487369E-03     -1.50273         0.121261E-04     0.642975E-03     -1.50263         0.140187E-04     0.841919E-03     -1.50249         0.165630E-04     0.110092E-02     -1.50231         0.201168E-04     0.144745E-02     -1.50208         0.251834E-04     0.193104E-02     -1.50176         0.333301E-04     0.263944E-02     -1.50134         0.441546E-04     0.378843E-02     -1.50056         0.794954E-04     0.573855E-02     -1.50015         0.547757E-04     0.104629E-01     -1.49470         0.838265E-03     0.208991E-01     -1.50399         0.120192E-01     0.952097E-01     -1.49991         0.213026E-01     0.249804         -1.47329         0.602692E-02     0.252335         -1.45552         0.224914E-01     0.211146         -1.44520         0.551479E-01     0.156317         -1.44067         0.905864E-01     0.982956E-01     -1.44078         0.120292         0.423782E-01     -1.44481         0.139710        -0.826279E-02     -1.45219         0.147185        -0.514478E-01     -1.46235         0.143124        -0.856315E-01     -1.47455         0.129379        -0.109898         -1.48797         0.108717        -0.124112         -1.50174         0.843133E-01    -0.129026         -1.51506         0.592191E-01    -0.126249         -1.52729         0.358874E-01    -0.118018         -1.53803         0.158183E-01    -0.106810         -1.54711        -0.568244E-03    -0.948895E-01     -1.55456        -0.138135E-01    -0.839301E-01     -1.56055        -0.250783E-01    -0.747969E-01     -1.56525        -0.357086E-01    -0.675836E-01     -1.56882        -0.468345E-01    -0.618382E-01     -1.57134        -0.591356E-01    -0.569121E-01     -1.57279        -0.727983E-01    -0.522718E-01     -1.57317        -0.876493E-01    -0.476915E-01     -1.57243        -0.103357        -0.432624E-01     -1.57060        -0.119631        -0.392860E-01     -1.56779        -0.136335        -0.360685E-01     -1.56416        -0.153525        -0.337425E-01     -1.56005        -0.171437        -0.320230E-01     -1.55580        -0.190565        -0.300342E-01     -1.55301        -0.211746        -0.243579E-01     -1.54669        -0.235870        -0.109967E-01     -1.57460        -0.234255         0.865187E-01     -1.56720        -0.151073         0.362941         -1.51121        -0.151087         0.413245         -1.46232        -0.120318         0.380746         -1.42305        -0.723971E-01     0.305865         -1.39577        -0.216741E-01     0.211152         -1.38044         0.209072E-01     0.115037         -1.37549         0.492007E-01     0.309490E-01     -1.37850         0.617107E-01    -0.333251E-01     -1.38679         0.604850E-01    -0.752732E-01     -1.39792         0.496162E-01    -0.965202E-01     -1.40995         0.338015E-01    -0.101325         -1.42157         0.172448E-01    -0.950825E-01     -1.43205         0.300836E-02    -0.830959E-01     -1.44118        -0.720406E-02    -0.697410E-01     -1.44908        -0.129343E-01    -0.580512E-01     -1.45609        -0.146584E-01    -0.496580E-01     -1.46257        -0.134019E-01    -0.449850E-01     -1.46888        -0.103780E-01    -0.435813E-01     -1.47525        -0.670988E-02    -0.444934E-01     -1.48182        -0.325929E-02    -0.465984E-01     -1.48860        -0.559318E-03    -0.488560E-01     -1.49552         0.117149E-02    -0.504617E-01     -1.50245         0.196281E-02    -0.509086E-01     -1.50924         0.200341E-02    -0.499786E-01     -1.51572         0.155321E-02    -0.476867E-01     -1.52175         0.871991E-03    -0.442059E-01     -1.52722         0.172240E-03    -0.397910E-01     -1.53205        -0.403325E-03    -0.347160E-01     -1.53616        -0.783895E-03    -0.292302E-01     -1.53953        -0.958842E-03    -0.235358E-01     -1.54214        -0.959030E-03    -0.177809E-01     -1.54398        -0.836955E-03    -0.120665E-01     -1.54506        -0.649769E-03    -0.645840E-02     -1.54540        -0.447285E-03    -0.100189E-02     -1.54501        -0.265438E-03     0.426526E-02     -1.54392        -0.124520E-03     0.930381E-02     -1.54218        -0.308392E-04     0.140680E-01     -1.53982         0.196565E-04     0.185045E-01     -1.53689         0.371437E-04     0.225543E-01     -1.53346         0.340388E-04     0.261567E-01     -1.52959         0.220436E-04     0.292535E-01     -1.52536         0.103242E-04     0.317933E-01     -1.52085         0.475544E-05     0.337350E-01     -1.51614         0.799712E-05     0.350504E-01     -1.51132         0.200971E-04     0.357250E-01     -1.50647         0.393346E-04     0.357584E-01     -1.50168         0.630724E-04     0.351642E-01     -1.49704         0.884694E-04     0.339681E-01     -1.49261         0.112982E-03     0.322071E-01     -1.48848         0.134649E-03     0.299278E-01     -1.48470         0.152180E-03     0.271846E-01     -1.48134         0.164922E-03     0.240384E-01